TITLE = "Flow Field for NACA0012"
VARIABLES = "X", "Y", "DENSITY", "U", "V", "P"
ZONE  N = 5306, E = 10382, ZONETYPE = FETRIANGLE
DATAPACKING = BLOCK
VARLOCATION = ([1-2] = NODAL, [3-6] = CELLCENTERED)
0
0.008
0.016
0.024
0.032
0.04
0.048
0.056
0.066667
0.077333
0.088
0.098667
0.109333
0.12
0.130667
0.141333
0.152
0.162667
0.173333
0.184
0.194667
0.205333
0.216
0.230857
0.245714
0.260571
0.275429
0.290286
0.305143
0.32
0.334857
0.349714
0.364571
0.379429
0.394286
0.409143
0.424
0.438857
0.453714
0.468571
0.483429
0.498286
0.513143
0.528
0.542857
0.557714
0.572571
0.587429
0.602286
0.617143
0.632
0.646857
0.661714
0.676571
0.691429
0.706286
0.721143
0.736
0.750857
0.765714
0.780571
0.795429
0.810286
0.825143
0.84
0.854857
0.869714
0.884571
0.899429
0.914286
0.929143
0.944
0.958857
0.973714
0.988571
1
0.988571
0.973714
0.958857
0.944
0.929143
0.914286
0.899429
0.884571
0.869714
0.854857
0.84
0.825143
0.810286
0.795429
0.780571
0.765714
0.750857
0.736
0.721143
0.706286
0.691429
0.676571
0.661714
0.646857
0.632
0.617143
0.602286
0.587429
0.572571
0.557714
0.542857
0.528
0.513143
0.498286
0.483429
0.468571
0.453714
0.438857
0.424
0.409143
0.394286
0.379429
0.364571
0.349714
0.334857
0.32
0.305143
0.290286
0.275429
0.260571
0.245714
0.230857
0.216
0.205333
0.194667
0.184
0.173333
0.162667
0.152
0.141333
0.130667
0.12
0.109333
0.098667
0.088
0.077333
0.066667
0.056
0.048
0.04
0.032
0.024
0.016
0.008
-10
-9
-8
-7
-6
-5
-4
-3
-2
-1
0
1
2
3
4
5
6
7
8
9
10
10
10
10
10
10
10
10
10
10
10
10
10
10
10
10
10
10
10
10
10
9
8
7
6
5
4
3
2
1
0
-1
-2
-3
-4
-5
-6
-7
-8
-9
-10
-10
-10
-10
-10
-10
-10
-10
-10
-10
-10
-10
-10
-10
-10
-10
-10
-10
-10
-10
0.0514311
0.0512762
0.0605856
0.0604737
0.0425754
0.0427929
0.0549035
0.0546426
0.0704803
0.0705615
0.0336064
0.0338936
0.0463488
0.0459861
0.0639906
0.0637949
0.0246642
0.0243625
0.0808219
0.0808793
0.0371326
0.0366065
-0.0030895
-0.0021657
0.0151994
0.0153439
0.0572288
0.0568744
0.0739487
0.0738074
0.0499162
0.0494869
-0.0098172
-0.0092465
0.0911938
0.0912339
0.0063356
0.0063936
-0.0110763
-0.0089857
0.0261203
0.0268249
-0.0165023
0.0667884
0.0665235
-0.0025057
-0.000548
0.101439
0.101468
-0.0188931
0.0842276
0.0841292
0.0420044
0.0413693
-0.0179124
0.0491884
0.0486032
0.111718
0.111742
0.0152802
0.0159796
-0.0180639
0.0586934
0.0582423
-0.0203315
0.077307
0.0771214
0.122312
0.122331
0.0941827
0.0941137
-0.0117044
0.0051989
0.0051444
0.0310273
0.0300268
-0.0265241
-0.0058608
0.133223
0.133239
-0.0279949
-0.0289504
-0.0034804
0.0696584
0.0693404
0.103665
0.103611
0.144287
0.144278
0.0488846
0.0481409
0.0878623
0.0877363
-0.020628
0.0385391
0.0375623
0.155323
0.155323
0.0183571
0.0168934
0.113614
0.113661
-0.0291706
-0.0182854
-0.0305645
0.166266
0.166254
0.0605407
0.0600226
0.0812219
0.0814353
0.12464
0.124679
-0.0305864
0.0966736
0.096584
0.177164
0.177135
-0.0120706
-0.0383614
0.0056555
0.0039735
-0.0368234
-0.0377269
-0.0309554
0.136096
0.136124
-0.0064667
0.187842
0.187792
-0.0403527
-0.0423113
0.1042
0.104286
0.198266
0.198187
0.0729514
0.0732962
-0.0417748
0.147671
0.147683
-0.0060899
0.0234478
0.0216753
0.0496629
0.0488492
0.0934059
0.0932667
-0.018328
0.209385
0.20926
0.0368413
0.0356253
0.159019
0.159028
0.115195
0.115269
-0.0190001
0.222072
0.222252
-0.0448313
-0.0427434
0.170049
0.170009
-0.0497221
0.0631909
0.0626601
0.127383
0.12744
0.236248
0.236484
-0.0287106
0.0869423
0.087167
-0.0511255
0.0073614
0.0043675
0.181459
0.181375
-0.0324335
0.250956
0.251235
-0.0534765
0.139387
0.13935
0.191452
0.191334
-0.0565776
-0.006279
-0.0558621
0.103067
0.102928
-0.0117014
0.265988
0.266285
0.20087
0.200672
0.151913
0.151906
0.0779005
0.0775558
0.281195
0.281463
-0.0421207
0.0360994
0.0373144
0.0513777
0.0506025
0.213535
0.213222
0.0233845
0.0214939
-0.0469161
0.296611
0.296445
0.595673
0.595597
0.162898
0.162869
0.61035
0.610309
0.581092
0.58094
0.311649
0.311627
0.99957
1.00004
0.118387
0.11849
-0.0193627
0.227189
0.226754
0.625154
0.625123
0.566501
0.566236
-0.0600633
0.326764
0.32653
0.640011
0.640041
-0.0565824
0.551823
0.551441
0.654938
0.654967
0.341429
0.341795
0.984787
0.985249
0.537059
0.536603
0.66989
0.669912
0.969529
0.969943
0.522234
0.521769
0.356774
0.356393
0.684869
0.684879
0.507365
0.506929
0.954282
0.954639
0.371744
0.37142
0.699877
0.699875
0.492452
0.492047
0.93913
0.939434
0.386743
0.386482
0.47748
0.4771
0.714908
0.714893
0.401804
0.401571
0.924051
0.924309
0.462435
0.462076
0.41694
0.416689
0.447308
0.446978
0.729915
0.72989
0.432126
0.431834
0.908999
0.909218
0.744837
0.744803
0.893941
0.894125
0.173412
0.173323
-0.0648152
0.759616
0.759656
0.0058587
0.0088396
0.878881
0.879035
0.774417
0.774372
0.863976
0.863849
0.789178
0.789126
0.848941
0.848835
0.80399
0.803929
0.833903
0.833815
0.818825
0.818898
0.241593
0.241043
-0.0627495
-0.0567204
-0.0265566
0.130672
0.130597
0.0937481
0.0939777
0.0665159
0.0660208
-0.062514
-0.0685578
0.188759
0.188558
0.256698
0.256071
-0.0695351
-0.0332876
1.01457
1.01492
-0.072817
-0.0701817
0.142446
0.142397
0.271606
-0.0056565
0.272243
-0.0715214
1.01395
-0.0103764
0.108757
0.10892
-0.0764342
0.203733
0.20334
0.287317
0.287858
-0.0411306
0.160032
0.16
1.01291
0.0373901
0.0384516
0.217673
0.217083
-0.0480996
0.083038
0.0833692
0.303221
0.589089
0.589282
0.6035
0.603589
0.302984
0.575092
0.574694
0.618236
0.618177
0.31819
0.318469
0.0533105
0.0526428
0.0243685
0.0226983
0.560713
0.560033
0.633127
0.633066
0.333738
0.333013
1.03054
0.545182
0.546102
0.648047
0.648112
-0.0759016
1.03067
0.996717
0.997726
0.348853
0.348001
0.530352
0.531349
0.663075
0.663131
0.980714
0.981623
0.516507
0.51557
0.678179
0.678144
0.231482
0.230686
0.363167
0.363908
0.965674
0.964886
0.500737
0.501589
0.693278
0.693272
0.378418
0.378987
0.950006
0.949332
0.485779
0.486577
0.393716
0.394168
0.708476
0.708454
-0.0192841
0.933998
0.934571
0.470672
0.471432
0.409515
0.409061
0.125436
0.125573
0.455392
0.456109
0.425028
0.424481
0.723727
0.72368
0.439959
0.440609
0.918763
0.91925
0.738793
0.738858
0.903937
0.903523
-0.0804866
0.753638
0.753718
0.88858
0.88823
0.768379
0.768289
0.872963
0.873255
0.009707
0.0070895
0.782992
0.782889
0.857816
0.858059
0.79754
0.797658
0.842852
0.842648
0.812342
0.812481
0.827576
0.827407
1.02961
-0.0723587
-0.0792785
-0.0250852
0.245357
0.246345
0.177009
0.177186
-0.0562733
-0.0851869
-0.064013
0.103276
0.103514
0.0700969
0.0696596
-0.081925
0.261283
0.262363
1.02922
1.02741
-0.0333751
-0.0897585
0.192679
0.193079
-0.0852616
0.277588
-0.0089841
0.147066
0.147002
0.278663
-0.08762
-0.0861914
-0.0049871
1.01158
-0.0938682
0.207636
0.208356
0.0383396
0.0374808
0.294818
0.293899
-0.039764
-0.0724059
1.00987
-0.0812533
0.596733
0.596857
0.583024
0.583366
0.310099
1.04539
0.30995
0.611043
0.611105
0.569592
0.568798
0.626046
0.625965
1.04719
0.324529
0.325568
0.221597
0.220641
0.555179
0.553807
0.641121
0.641015
1.04706
-0.0482266
0.340835
0.339284
-0.0912326
0.538818
0.540508
0.656118
0.656223
0.992649
0.994176
0.524129
0.525713
0.354605
0.355945
0.671254
0.67133
0.0879874
0.0883202
0.97586
0.97718
0.510827
0.509467
0.165325
0.165251
0.371037
0.370055
1.04767
0.686478
0.686449
0.960826
0.9597
0.0248705
0.0262073
0.494587
0.495839
0.38623
0.385563
0.701743
0.701764
0.479486
0.480699
0.944064
0.945025
0.4011
0.401657
0.464141
0.46531
0.41744
0.416718
0.449563
0.448459
0.717263
0.717195
0.43351
0.432539
0.928678
0.929503
-0.0973027
0.055267
0.0547433
0.732905
0.732801
0.91404
0.913333
0.748016
0.747891
0.898465
0.897859
-0.0968368
0.76253
0.762389
-0.0892203
0.882181
0.882694
0.232995
0.234344
0.776939
0.776781
0.866779
0.867204
0.791357
0.791178
0.852131
0.851773
0.805726
0.805933
0.836494
0.83619
0.820569
0.820816
-0.0187884
0.118297
0.11853
1.04284
0.0113701
0.0093183
0.182085
0.182403
-0.0235019
0.249808
0.251431
-0.0898756
1.0268
0.134732
0.134924
-0.102295
-0.0549469
-0.0644371
-0.0980843
1.04569
-0.0999297
0.267007
0.268632
0.197246
-0.101777
0.197909
1.02419
0.105669
0.105975
0.0735561
0.0739515
-0.107606
-0.0323061
-0.100022
-0.0044987
-0.0077472
-0.105119
0.0377699
0.0383204
0.284158
0.2859
1.06178
0.154124
0.15403
-0.107496
1.00796
-0.112513
-0.0822894
0.303002
0.301144
0.590472
0.590582
0.603197
0.603181
0.214588
0.578288
0.578773
0.31667
1.06483
-0.0374084
-0.0713973
0.215999
1.00564
0.317406
0.618605
0.618668
0.562876
0.564424
1.06404
0.329757
0.633949
0.633797
0.332799
0.549751
0.547072
0.649009
0.649188
0.345641
0.347919
0.53231
0.534982
-0.107517
-0.116684
0.66422
0.664366
0.987315
0.989306
0.5182
0.52014
1.06565
0.361332
0.362954
0.679433
0.67951
0.505217
0.503518
1.06539
0.970061
0.971739
0.378059
0.3771
0.171086
0.488467
0.490167
0.171209
0.694738
0.694746
0.39336
0.392849
0.954109
0.955543
0.473192
0.474901
0.122364
0.12268
0.408559
0.409141
0.457561
0.45917
0.424447
0.425724
0.710224
0.71031
0.44106
0.442659
-0.0468666
0.938632
0.939872
1.0434
0.726334
0.726184
0.92331
0.924387
0.743178
0.742984
0.908794
0.907857
0.756865
0.756667
0.0573893
0.0577776
0.892807
0.891998
0.0175156
0.0186978
0.770994
0.771228
0.875208
0.87589
0.785115
0.784874
0.860665
0.861209
0.799474
0.799182
0.846465
0.846969
0.813469
0.813786
0.828202
0.82861
0.0927482
0.0931271
-0.11388
0.23661
0.239044
1.05898
-0.0180245
-0.108829
1.03966
0.189055
0.189601
-0.101725
1.06315
-0.0894915
-0.0521536
-0.0218492
0.255292
-0.120106
0.25768
1.0234
0.141239
0.141538
-0.116683
-0.114152
-0.063712
-0.120056
-0.119911
0.275574
0.273602
-0.126732
1.02008
1.07845
-0.124172
0.0382135
0.0383665
-0.0282947
0.109354
0.109744
0.0788449
0.0792823
-0.12726
0.164791
0.164627
-0.0060188
-0.0084327
0.291408
-0.122678
0.294529
1.06113
-0.132563
1.00289
1.08321
0.315812
0.30976
1.08142
0.591047
0.590703
0.611187
0.611115
0.573428
0.573952
-0.0824206
0.324949
0.626337
0.626532
1.00003
0.555781
0.559298
-0.10916
-0.0691885
0.339882
0.642045
0.641741
0.544135
0.538761
0.336427
1.08454
0.352261
0.354889
0.526801
0.529678
-0.032031
0.657056
0.657317
1.08364
0.512893
0.514462
0.369693
0.368157
0.672342
0.672514
0.979862
0.982237
-0.137451
0.499908
0.49741
1.08472
1.05609
0.224908
0.38492
0.384476
0.687518
0.687485
0.963679
0.965631
0.482518
0.484467
0.400133
0.400028
-0.125972
0.0213222
0.0217045
0.466875
0.469611
0.22802
0.415954
0.416542
0.452968
0.45152
0.702841
0.702941
0.431705
0.434989
0.948621
0.950404
0.718529
0.718724
0.933064
0.934559
0.735552
0.735262
0.91831
0.919701
0.207262
0.759329
0.758997
0.903473
0.902312
0.886522
0.887602
0.786543
0.786159
0.863033
0.863868
0.208942
0.1249
0.125395
0.813588
0.814076
0.838833
0.839504
1.07549
1.04072
-0.043961
1.0811
-0.141608
-0.129224
-0.130106
0.241769
0.246641
0.101114
0.101611
0.0616885
0.0612536
-0.102724
-0.133852
1.03613
-0.130232
-0.139601
0.147282
1.0191
0.146779
0.264592
0.262642
-0.0881335
-0.0477156
0.186108
1.07916
0.186024
-0.0620365
1.09464
-0.139831
-0.0223278
-0.144849
0.280784
0.281941
-0.147626
1.01514
0.0012475
0.0003533
-0.136565
-0.145156
0.0387937
0.0388566
1.07314
-0.148441
-0.0244655
1.10185
1.09875
0.298689
0.304771
-0.124548
-0.150915
-0.154043
0.224084
0.995729
0.0877163
0.0870615
1.05967
0.324674
1.09851
0.601563
0.600721
0.579064
0.576541
0.229385
0.325319
0.626255
0.6268
1.10418
0.54698
0.992423
1.10224
0.349599
0.353816
0.531762
-0.0817786
0.657865
0.658364
0.517393
0.164231
-0.108639
0.163483
0.499563
1.10509
0.38333
0.383998
1.10443
0.487765
0.687868
0.687873
0.965855
0.968473
-0.159464
-0.0659721
0.469478
0.414793
0.412747
0.45839
0.4423
0.204616
1.09197
0.204565
0.718027
0.718406
0.938593
0.936477
0.0128019
0.0121063
1.05349
0.747252
0.74672
0.908556
0.906841
-0.150581
0.774048
0.774607
0.881101
0.879676
0.801288
0.801921
0.853753
0.854847
0.827846
0.828661
0.113831
0.11453
0.140446
0.139672
1.03806
1.09501
-0.0402609
-0.164584
0.0672815
0.0683711
-0.147972
-0.152548
0.246788
0.261013
-0.155279
-0.10294
0.557382
-0.153867
1.03269
-0.0423014
1.09076
-0.169305
1.10828
-0.130452
-0.162021
0.186556
1.01421
0.184923
0.277319
0.435814
1.11403
-0.0860453
1.07993
-0.161725
-0.0164072
-0.0598166
-0.167057
-0.01655
1.11524
-0.170415
-0.170744
1.12018
0.291033
1.00977
0.319852
0.600154
0.598377
0.0368547
0.0394054
-0.17375
-0.125569
1.0714
0.21894
0.307902
0.213564
0.101018
0.100129
1.10978
-0.176405
1.12427
0.987856
1.12084
0.565701
0.337414
1.05941
-0.173171
0.573941
0.789485
0.79024
0.646869
0.648603
0.817354
0.816454
0.536095
0.843019
0.844259
0.984098
0.160167
1.12643
0.516501
0.370337
0.366573
0.546252
0.158924
0.506867
1.12467
0.673226
0.672758
1.10364
0.486228
0.400303
0.395337
0.761483
0.762281
-0.062241
0.47771
1.12657
-0.153404
0.457176
-0.0804642
0.428969
0.869994
0.871725
0.13113
-0.182405
0.130203
0.702433
0.703125
0.955983
0.959233
-0.107469
0.242914
0.73234
0.733241
0.423052
0.929499
0.92672
0.449823
0.897833
0.900103
0.0164183
0.0134987
1.05183
1.10918
-0.178087
-0.178134
-0.149837
-0.189314
-0.176332
1.0357
-0.0367345
-0.176041
0.340244
0.624131
0.62848
0.0609387
0.0629506
0.0873019
0.0860542
-0.0367352
0.255741
-0.195395
-0.102284
1.13001
1.12897
1.03004
1.12873
0.270513
1.08937
-0.187121
-0.177286
-0.130039
0.185212
0.183058
-0.18597
-0.0835807
1.00922
1.08303
-0.189966
1.13803
0.30804
-0.193711
0.288391
-0.0573345
0.582232
-0.175949
-0.194889
-0.19795
-0.0088755
0.320687
0.595819
0.553911
-0.0121821
1.00448
0.350613
0.117297
0.805473
0.806355
0.116475
0.832662
0.831445
0.525675
1.14457
1.13915
0.653199
0.656007
0.240128
-0.200781
0.388028
0.378746
0.98064
0.502102
0.60804
-0.125562
0.496527
1.07009
1.12608
0.415553
0.472394
0.777973
0.778853
0.53295
0.153482
0.443533
0.685893
0.687463
0.15234
0.858472
0.860331
-0.196882
0.564827
0.359736
0.976251
1.12049
0.718862
0.717043
0.950642
0.946584
-0.200327
0.407425
0.748132
0.749386
1.14859
0.466838
-0.203426
0.920097
0.91661
1.14525
1.06041
0.0352106
0.0388306
0.887099
0.889794
-0.204201
0.437057
-0.0586656
1.15006
1.14893
-0.207497
1.10427
0.211151
0.237232
-0.15364
0.210091
-0.0783341
-0.105789
-0.204117
0.0025599
0.0142835
0.0855741
0.0871402
1.05357
1.11056
-0.216447
-0.150532
0.33383
-0.201916
1.03326
-0.0340953
1.14613
-0.207069
0.622324
0.632893
1.14216
-0.223574
0.265625
1.15136
-0.0316952
0.287043
-0.100533
1.02815
0.181024
0.178685
-0.0111332
1.15552
0.263481
-0.211199
0.0547801
0.057033
-0.215187
1.08449
1.00402
1.09081
0.302902
-0.0811067
-0.210443
-0.229526
-0.177481
0.569157
-0.129178
-0.218757
1.12347
0.336723
0.544517
0.363366
1.15771
0.598086
-0.17745
0.146236
0.146907
0.820414
0.821396
-0.224048
0.516057
0.403579
0.486995
0.672622
0.666743
0.428783
0.458179
0.589365
-0.0542367
0.973224
0.234667
0.796862
0.797572
1.16494
-0.226887
0.844653
0.846275
0.517388
-0.222942
0.378563
0.998776
0.389016
0.704032
0.699677
0.31377
0.485944
0.550467
0.240354
1.13594
0.735758
0.733542
0.967708
0.766175
0.767185
0.94145
0.936275
-0.230682
0.87447
0.877336
0.905112
0.909314
0.646011
0.421218
0.453887
0.347367
1.15073
-0.227196
-0.124312
1.16596
1.17142
0.114362
0.115106
1.163
1.06054
1.17485
1.17205
0.209877
0.204986
1.17507
-0.0565442
-0.2367
-0.234547
-0.200633
0.0208342
0.0209929
-0.154113
-0.0748112
-0.103171
-0.231751
-0.206654
0.0810224
0.0835521
1.05709
-0.245948
1.11847
-0.227949
0.279507
-0.235051
-0.0325987
-0.149774
1.03005
0.62523
1.14166
0.624379
0.648276
0.167421
0.175012
1.17174
0.284869
-0.253575
1.15154
1.11416
1.17367
1.17391
0.321031
1.02515
0.194014
0.255518
0.566926
0.998074
-0.238006
-0.0975405
0.361628
0.535261
-0.0318613
0.143396
-0.0153238
0.144863
-0.260792
-0.247713
-0.250537
0.406908
-0.238463
0.472396
0.44485
0.656518
-0.251562
1.09
0.823456
0.824089
-0.0787851
0.499368
-0.226068
0.688308
0.677462
-0.176929
0.508319
-0.128094
0.964846
1.18523
0.565818
-0.254487
0.717108
0.720985
0.532295
1.17256
0.787436
0.787474
-0.177372
0.752838
0.753931
0.228662
0.991069
1.18593
0.85947
0.861865
-0.258441
0.924266
0.930855
0.332607
0.957367
1.1794
0.891872
0.896549
0.0450792
0.401606
1.09258
0.0493559
0.473948
0.365746
0.227348
-0.258488
-0.0478718
0.438225
-0.267496
0.602761
1.19468
-0.258478
0.600867
-0.257198
-0.0165001
0.198762
0.308127
-0.121566
0.111598
1.19566
0.257252
0.113432
1.20076
1.05897
1.16402
1.20139
0.639685
1.20305
1.19327
-0.268587
-0.0571032
1.17661
-0.207688
1.13588
1.12486
-0.193068
-0.0699526
-0.159101
-0.0959513
0.0749566
-0.276546
0.172709
1.05878
0.263837
-0.257067
0.0797502
-0.267716
-0.273101
1.02576
0.176232
0.0126181
0.636104
-0.147048
0.300333
0.0049053
-0.284835
1.20019
0.286783
0.339722
1.20475
0.540374
1.20278
1.01722
0.990875
0.204674
0.430274
0.4725
-0.241032
-0.274349
0.578131
-0.278862
1.2126
1.20439
0.670629
-0.279933
-0.294554
-0.0398722
-0.276716
0.379872
-0.0936494
0.704859
0.70097
0.546072
0.328147
0.954899
0.575688
0.514522
-0.286446
0.396549
0.73784
0.738829
0.810383
0.808765
0.844687
0.845245
0.774611
0.773194
-0.286004
-0.0103774
0.498216
0.145901
0.881765
0.877484
0.145421
0.910294
0.918316
0.980297
0.944613
1.0908
0.419616
0.459001
-0.220085
-0.292513
0.210572
1.10098
0.252546
0.0339563
-0.126906
-0.291075
-0.175262
-0.303293
1.21788
1.19144
0.0429134
0.669426
1.21944
-0.291795
0.609131
-0.0384647
-0.296692
0.612829
1.17272
1.15308
0.238288
1.22752
-0.0815923
-0.175306
-0.116644
0.109273
1.05687
1.229
0.11342
-0.277437
1.20753
1.23269
0.3702
1.23328
-0.301745
1.23004
-0.207012
1.13843
0.0690367
-0.303057
1.12021
-0.292714
-0.254812
-0.0655015
1.23065
0.646027
-0.304327
1.04311
-0.310648
0.181269
0.275528
0.0764432
1.07555
1.01998
0.317138
0.650369
0.358399
1.23717
0.183188
0.571286
-0.141239
-0.318983
-0.312042
-0.310018
0.295441
0.409701
1.23999
0.451171
0.398283
0.213476
0.98199
0.52429
1.00503
0.682709
-0.31682
-0.0296949
0.494879
-0.324636
1.24537
0.833213
0.829531
-0.312099
0.863865
0.865472
0.687421
0.541946
0.720923
0.722792
0.942773
0.0032786
0.760239
0.757039
-0.242197
0.792992
0.798595
1.20222
-0.331704
0.48325
0.894525
0.903255
0.440687
-0.323797
0.928887
0.966529
1.24493
-0.329758
0.586482
-0.0902015
-0.106207
-0.213891
1.17936
-0.14201
0.225808
0.33842
1.10479
-0.329075
1.22082
-0.0155732
1.09397
0.0254605
0.147767
-0.0649201
0.15172
-0.292584
0.0367033
1.25584
-0.327981
-0.342044
1.13828
1.17571
-0.170801
-0.329596
0.616623
0.627332
0.243883
1.25812
1.25492
1.23562
-0.28057
0.265112
-0.331149
-0.350988
0.10719
1.07021
-0.10566
1.26366
1.05193
0.113923
0.382856
-0.17191
1.26574
1.26277
1.26739
-0.339292
-0.34085
-0.252178
1.27515
-0.204709
0.339092
-0.0690941
1.27062
1.14064
0.289975
0.0726703
0.376425
0.199651
1.27079
0.658264
1.032
-0.331707
0.544436
0.0636113
1.0127
0.667743
0.472451
-0.35936
0.516717
0.427317
0.50803
1.27588
1.20816
-0.129698
0.30204
-0.350131
0.193795
0.414771
-0.358922
1.21952
1.26377
-0.131521
0.970961
0.854641
0.849172
0.700276
-0.0921357
-0.367103
-0.321974
0.991119
0.826807
0.815519
-0.359097
0.878393
0.883921
0.707966
0.740475
0.743121
0.927425
-0.358292
0.785972
0.773816
0.469205
0.559227
1.28532
1.16387
0.58576
-0.368934
1.2518
-0.365511
0.908046
0.94921
1.11892
-0.372195
0.250133
-0.242096
-0.20886
-0.369518
0.601812
0.352195
1.28828
-0.292494
1.10308
1.28416
1.08079
0.148167
-0.0382098
-0.370663
0.156805
-0.0555755
-0.383221
1.29084
1.18074
0.0296413
-0.366384
-0.164586
-0.0039668
1.30483
-0.372911
0.0161898
0.246832
0.644672
0.62897
-0.014343
-0.084686
1.29585
-0.393907
-0.282628
0.105622
1.30094
1.2956
1.06288
0.113233
0.399608
-0.161632
1.0474
1.30319
1.23914
-0.384183
0.371738
1.30574
1.30519
0.321161
-0.250148
-0.333111
0.496432
-0.404339
0.518883
-0.388149
-0.104317
1.2547
-0.369654
0.558193
0.674621
1.31572
0.448362
-0.201139
1.01974
0.535473
1.14118
-0.394516
0.688593
1.19327
1.31155
1.00412
-0.407065
1.31343
0.218371
1.29258
0.43241
-0.326146
1.14475
-0.402853
0.204277
0.324373
0.183728
-0.412165
0.286666
0.956941
0.289183
0.870692
0.851439
1.28309
0.721628
1.31074
0.906847
1.09169
-0.402898
0.8174
0.796132
0.740658
0.769292
0.572989
0.974204
-0.121587
0.0668878
1.22376
0.0583936
-0.401498
-0.408694
0.926392
0.594801
1.32868
-0.414112
-0.411203
-0.0444068
-0.203271
-0.240978
-0.36765
0.366327
0.620194
-0.294832
-0.413921
-0.409966
-0.419569
1.0989
0.151348
1.32694
-0.0421913
0.158778
-0.425854
1.34119
1.33496
0.486408
-0.372681
1.32885
0.257271
1.26942
0.257125
-0.419076
1.18365
-0.157234
-0.404075
1.27369
0.643434
0.662351
1.3464
0.420994
-0.439756
-0.151722
-0.283729
0.105369
-0.081561
1.34164
0.111175
-0.430209
1.05343
1.22814
1.34655
0.0063147
1.04323
0.318686
0.0164202
1.33992
0.532143
0.207405
-0.0100427
0.473702
0.546929
-0.341758
1.34664
1.17485
0.404444
-0.435362
-0.440482
-0.452816
-0.249016
0.312584
1.35072
-0.448557
0.69478
1.31227
1.12548
-0.422428
-0.452973
1.32316
1.00484
0.708142
-0.389034
-0.196772
0.993568
1.14009
-0.0973044
1.35353
-0.456503
0.448056
0.938833
1.35433
-0.448649
0.882609
1.36047
-0.329281
0.851328
0.825915
0.74728
0.79996
0.769433
-0.464763
0.207203
0.902178
-0.448277
0.953859
-0.453444
0.367327
0.589247
1.23012
-0.109309
0.0590554
-0.449286
0.0534827
0.605275
-0.453957
-0.0472324
-0.198147
1.36212
-0.451914
-0.464476
0.39629
1.31275
1.08104
-0.239136
1.28342
-0.437925
0.650212
1.36896
-0.302048
1.0928
-0.377792
-0.471955
0.502994
0.160818
0.158271
-0.0462922
0.266569
-0.46739
0.358891
0.288216
1.37328
1.37593
1.39075
1.38089
0.248798
0.442168
1.18595
1.37673
1.34526
-0.475704
-0.145648
-0.149452
1.19969
0.66184
1.38718
-0.477005
-0.489455
1.35551
1.27831
0.402939
-0.283925
1.39552
-0.418678
-0.363231
0.109173
1.04143
0.339189
1.15704
0.105469
0.502537
1.0415
1.39389
-0.429605
1.3906
0.746258
1.39031
-0.496328
-0.245389
-0.488564
-0.504504
-0.0015802
0.799544
-0.496321
-0.48586
1.10308
0.881459
0.555004
0.561818
0.71951
-0.492511
1.23595
0.0010581
0.976784
0.856381
0.986295
0.835969
1.39922
-0.490234
0.929106
0.91629
0.45934
-0.192216
1.40145
1.13802
-0.0936609
0.326223
-0.496719
0.778127
0.216964
0.214244
-0.0981257
0.69959
-0.519085
-0.331216
-0.498392
-0.494674
1.3326
1.40614
1.41085
-0.475096
-0.49907
-0.500279
1.32549
1.23508
0.39359
0.605219
1.40388
-0.193707
-0.509968
0.0505073
0.622608
0.0471812
-0.485198
0.277854
-0.334298
1.40654
-0.236819
-0.285209
0.515471
1.26579
1.38868
-0.0508726
1.43209
1.38507
1.08488
1.42002
-0.381406
-0.525347
-0.533049
0.165229
-0.452915
0.163585
1.2017
0.466491
-0.0492873
-0.392746
0.667002
-0.520103
0.279643
1.43568
1.18857
-0.142474
0.380827
1.44289
-0.139286
1.43917
0.685131
0.774475
-0.542086
-0.527144
0.726524
1.42911
0.546247
1.28515
1.13673
1.07618
-0.533955
0.421839
1.02625
-0.283085
-0.540268
1.01637
0.824916
0.888484
0.109169
0.105335
-0.544194
-0.53434
1.4454
-0.434994
-0.545164
-0.24389
-0.558612
-0.540121
1.44605
0.962151
1.44168
-0.545346
0.749561
1.44473
-0.515458
-0.544321
0.889078
0.577558
0.954062
1.36593
1.37372
0.816133
-0.088735
-0.0207269
0.346795
0.464973
1.44977
0.339148
-0.547933
-0.0206967
-0.549864
-0.188162
1.1357
-0.0840926
0.226421
1.45804
-0.577719
0.226961
1.46182
-0.331599
1.30565
-0.299973
-0.492548
-0.361802
1.46811
1.24198
1.46108
0.419132
1.33317
-0.565205
0.624029
-0.189669
-0.48964
-0.563086
1.42142
1.42422
0.643842
0.0461607
-0.595274
0.041417
-0.42446
1.24105
-0.234005
0.526239
0.401441
0.696809
-0.580639
-0.583866
1.07495
-0.383063
0.495992
1.10728
0.775297
1.1743
1.05166
0.289844
1.49205
0.172455
0.169089
-0.587249
-0.137572
1.47086
0.29511
1.19433
0.713162
-0.595294
1.50286
1.49996
-0.590376
-0.128779
-0.582762
-0.558806
1.40244
-0.554674
1.47614
1.50238
1.00765
1.48695
-0.598021
1.28914
0.934907
1.39184
0.854858
-0.598709
0.997748
1.50481
0.859356
-0.280643
1.49267
0.784998
-0.610059
-0.437988
-0.602719
0.112391
0.105757
0.92799
-0.617618
-0.596152
-0.248947
-0.607654
0.575195
1.35061
0.367913
-0.602939
1.46048
1.5056
0.595333
-0.081986
1.51466
1.50073
-0.0726535
0.465795
-0.324946
-0.393312
-0.529526
0.346373
1.45659
-0.185396
-0.621849
-0.0257969
1.13315
1.28314
-0.642426
0.239757
-0.0200924
0.238112
0.44488
-0.454943
-0.329928
-0.497068
0.654276
-0.630165
-0.63029
1.52006
1.25907
1.21418
1.32566
-0.183037
1.14369
-0.624187
1.53728
-0.662982
0.669115
0.734188
1.06031
1.52067
1.5288
0.0465367
0.0371643
-0.648231
1.0618
-0.605407
-0.22952
1.54013
0.52486
0.538453
1.41288
1.5153
-0.649325
1.56303
-0.382227
-0.653852
0.3121
-0.561069
1.44273
-0.680116
-0.645282
0.815646
0.310272
0.3917
1.56145
0.905937
-0.138092
0.182651
0.825413
0.746107
0.985613
0.17545
1.5688
-0.659021
-0.103626
1.20705
-0.644348
-0.662592
0.896332
1.56731
0.975763
-0.662075
1.57975
-0.65718
-0.251491
-0.574559
1.50573
-0.275367
1.5625
0.390419
1.38421
0.606557
1.49519
1.3314
-0.437757
-0.686824
-0.399251
1.573
-0.672631
0.11825
0.106674
-0.662907
-0.491744
-0.0860425
-0.682042
0.616802
1.25406
1.29546
1.58842
-0.694307
-0.63044
1.12466
0.472309
1.1873
-0.713744
-0.184524
1.57997
0.689552
0.250795
1.58485
0.471964
0.257727
-0.0359495
-0.703682
1.11764
-0.326333
-0.498025
-0.023752
-0.655055
0.774043
1.57986
-0.702225
1.57312
-0.318559
1.47002
-0.175138
1.46632
0.699348
-0.735874
-0.70405
-0.691737
1.04443
0.336959
-0.718525
0.78443
0.0471026
-0.705461
0.0314338
0.87142
0.55555
1.61423
0.859419
1.02757
1.61268
-0.216731
0.331223
1.6281
0.958654
1.60841
-0.724596
0.554433
1.61814
-0.755161
1.38461
-0.377923
-0.563878
-0.725323
-0.152435
-0.623865
-0.733281
1.2571
-0.712386
0.196192
-0.735995
0.183038
-0.723402
0.944298
1.55063
1.18469
0.409398
1.5442
-0.735122
1.62817
-0.450731
1.33859
-0.539385
1.60205
-0.772197
-0.103439
1.30078
-0.257387
0.640792
1.65032
-0.358628
0.415498
-0.268599
1.20567
-0.763924
-0.432866
1.42344
1.65518
1.63067
1.65051
-0.745174
-0.635424
-0.760423
0.12549
0.107903
-0.0991967
-0.706798
0.644183
1.63366
1.62558
0.728158
1.60929
1.1163
1.65719
1.66702
0.281328
1.51145
-0.789847
0.474467
1.5201
0.501672
1.06889
1.67209
0.26577
0.817748
0.735389
-0.780469
1.43805
-0.323481
-0.781634
-0.494937
-0.0508477
0.372009
1.66382
-0.786475
-0.151041
-0.0300249
0.828749
-0.812801
1.0191
-0.7689
1.6563
-0.781429
-0.189387
0.997882
-0.67502
1.60089
-0.792332
0.925094
1.12867
-0.713042
1.59822
0.588496
0.908572
1.29807
1.69306
1.21763
-0.788182
1.35558
1.69198
0.0469765
0.0243508
-0.80815
-0.79461
-0.589739
-0.786954
1.65659
1.70447
0.353812
-0.834989
1.37176
-0.50326
0.580616
-0.814835
-0.364324
-0.562613
-0.410064
-0.31412
0.212549
0.192495
-0.815672
1.27108
1.71447
0.677333
-0.76083
-0.855926
1.69255
1.71411
1.46274
1.67193
-0.79718
0.445026
1.70295
-0.831152
-0.231307
-0.27969
1.55868
-0.844163
1.17815
0.678595
1.5783
-0.827784
-0.423533
-0.843184
-0.636128
0.313301
0.770121
-0.112774
0.132754
0.110226
1.07632
-0.873894
1.49245
1.07189
1.74418
0.417235
1.73558
1.74875
0.776976
0.534621
1.7194
-0.867763
1.14646
0.515786
1.4063
-0.728654
0.866475
-0.0696714
0.284245
-0.862491
-0.846352
0.965495
-0.865287
1.65583
1.66242
-0.853407
0.993305
1.73698
1.30407
-0.487818
0.879
1.74581
-0.637435
-0.168362
-0.892335
-0.877317
-0.716341
-0.87055
-0.0376366
-0.556805
1.33006
0.622032
-0.867181
-0.896757
-0.264543
-0.861679
-0.361189
-0.470451
-0.195414
-0.888096
1.4018
1.77905
0.616479
1.7695
1.7704
0.0451069
0.0178705
-0.817185
-0.920562
0.382193
1.754
-0.347655
1.21538
-0.899575
-0.556373
1.6115
1.25402
1.74813
1.50699
1.75468
1.64206
-0.803694
1.79887
-0.903008
1.80167
0.227076
0.715204
0.204688
-0.946277
-0.92197
0.374334
1.10584
1.79869
1.55132
0.483469
0.717998
1.13588
0.454097
1.78816
-0.787967
-0.927942
-0.914394
-0.89449
1.02702
-0.412585
-0.934836
1.45754
-0.967945
0.816283
-0.267966
-0.631578
1.82232
-0.124078
0.920667
1.71373
-0.089076
0.140265
0.114889
1.73275
0.568089
1.80967
1.36121
0.822023
1.80643
0.552222
-0.690632
1.82529
-0.938421
-0.951563
1.84352
-0.942508
0.309447
0.927552
0.307488
-0.580973
-0.953141
-0.203372
-0.898245
-0.953243
1.31808
-0.95208
-0.307422
-0.952555
-0.475603
-0.882065
-0.97835
-0.398665
-0.714729
1.44494
-0.98768
1.84335
0.649345
-0.985758
1.55953
1.67117
1.80469
1.01956
1.70836
-0.0500132
1.82672
1.8546
0.653868
1.8381
-0.197589
1.87947
-0.958221
-1.01422
-0.336718
0.420127
0.0393586
0.0173648
1.19882
1.19512
1.61598
1.08756
-0.99176
0.378158
1.8727
-0.542945
-0.856769
-1.00001
-0.971597
0.97971
1.84774
-0.805565
-1.01859
-1.00734
-0.479535
-1.04361
1.87015
0.756707
0.255025
1.30408
0.219653
1.51834
1.78121
0.551733
0.487385
1.90479
1.80568
1.8937
0.760047
-0.74971
0.868704
1.88313
1.08986
1.41258
1.91173
-1.02462
-1.03949
-0.147487
-1.00405
-1.06822
1.88344
-0.402808
-0.656252
-0.621075
-0.24953
0.870333
-1.03896
-0.149916
-0.904016
1.38073
0.980585
-0.242054
-0.961784
-1.047
1.93104
0.586063
0.143303
0.120327
-0.373063
1.27846
-1.08982
1.49981
1.90922
-1.04135
1.95144
0.334886
1.93899
1.90092
1.73794
-0.572664
1.61959
1.77116
1.90929
-1.0358
-0.0687123
-1.06864
-0.449419
-1.07848
-1.09314
1.92592
-1.06909
-0.707911
1.92357
1.67925
1.04294
1.14339
0.682956
-0.937613
-1.06719
-0.0716889
1.24388
0.69051
-1.11641
0.461792
1.95776
1.1837
-1.01048
-0.338287
1.59326
0.336179
1.85525
0.43144
1.99152
0.009691
0.0304221
0.930626
1.88273
-1.12562
-0.818868
1.35528
-1.10892
0.808024
-1.10911
-0.521601
-1.14264
-0.802256
-1.14667
-0.47916
1.47619
1.98508
1.97853
0.251805
-1.05312
0.236359
-0.685068
1.30916
0.522799
-0.205182
0.80539
-0.133326
1.96972
1.04944
-1.15198
-1.14522
1.98913
1.4313
2.01932
-1.17334
-1.12547
1.97758
0.925923
-1.1207
2.02514
0.597114
-0.286321
1.96254
1.81067
1.55957
-1.17229
1.84293
1.9976
-0.60529
-1.14649
1.68587
-0.904693
0.609826
0.124635
0.144096
-1.19992
-1.02875
-1.17105
2.01666
1.70476
-1.17668
2.0125
0.364504
-1.16938
1.10536
-0.416216
-0.552598
2.02232
-0.413208
-1.21289
1.18383
2.0696
-1.18894
2.07009
1.00981
0.735082
-1.22603
1.93434
0.365111
-0.695798
-0.904025
1.2794
1.96665
-0.0932926
2.05698
-1.01643
2.05104
0.873894
0.727792
-0.308901
0.502821
1.41292
-1.22446
-1.24343
1.23436
-1.15197
1.1236
1.5618
0.499561
-0.777517
-1.21465
2.08464
-1.22614
-0.0014983
0.0222076
2.11116
1.34386
-1.27323
-0.495181
2.08487
-1.25168
-0.792474
2.08331
-1.26298
2.0681
-1.28343
0.857288
0.991629
-0.214451
1.49144
1.88869
0.268071
2.09099
2.10586
1.92892
0.254591
1.75772
-1.24947
1.62568
-0.665005
-1.25532
0.648455
-0.222509
-1.28114
-1.1271
-1.29186
-0.337542
-1.13791
-1.27645
1.80013
-1.28923
2.11652
-1.26125
2.14754
2.14743
-0.587268
-0.466946
-1.3011
-0.899134
2.12828
-0.114623
0.632278